TERTIARY                                
           1
     4.117086    0.000000    0.000000
     0.000000    6.709541    0.000000
     0.000000    0.000000   13.428859
   Co   Cu   Ce
     4     4     8
Direct configuration=    41
   0.41851842  0.68632654  0.65109175
   0.91851842  0.81367346  0.34890825
   0.58148158  0.18632654  0.84890825
   0.08148158  0.31367346  0.15109175
   0.53238162  0.78551312  0.84904330
   0.03238162  0.71448688  0.15095670
   0.46761838  0.28551312  0.65095670
  -0.03238162  0.21448688  0.34904330
   0.03436303  0.93863421  0.70715086
   0.53436303  0.56136579  0.29284914
  -0.03436303  0.43863421  0.79284914
   0.46563697  0.06136579  0.20715086
   0.94235641  0.52633179  0.52591036
   0.44235641  0.97366821  0.47408964
   0.05764359  0.02633179  0.97408964
   0.55764359  0.47366821  0.02591036
