TERTIARY                                
           1
     6.337897    0.000000    0.000000
     0.000000   11.769008    0.000000
     0.000000    0.000000   12.690521
   Co   Cu   Ce
    28     4    24
Direct configuration=    59
   0.87250316  0.92553441 -0.00000000
   0.12749684  0.07446559 -0.00000000
   0.62749684  0.42553441 -0.00000000
   0.37250316  0.57446559 -0.00000000
   0.31424048  0.40108497  0.10878487
   0.68575952  0.59891503  0.10878487
   0.18575952  0.90108497  0.89121513
   0.81424048  0.09891503  0.89121513
   0.68575952  0.59891503  0.89121513
   0.31424048  0.40108497  0.89121513
   0.81424048  0.09891503  0.10878487
   0.18575952  0.90108497  0.10878487
   0.00000000  0.50000000  0.25000000
   0.00000000  0.50000000  0.75000000
   0.37250316  0.42553441  0.50000000
   0.62749684  0.57446559  0.50000000
   0.12749684  0.92553441  0.50000000
   0.87250316  0.07446559  0.50000000
   0.81424048  0.90108497  0.60878487
   0.18575952  0.09891503  0.60878487
   0.68575952  0.40108497  0.39121513
   0.31424048  0.59891503  0.39121513
   0.18575952  0.09891503  0.39121513
   0.81424048  0.90108497  0.39121513
   0.31424048  0.59891503  0.60878487
   0.68575952  0.40108497  0.60878487
   0.50000000 -0.00000000  0.75000000
   0.50000000 -0.00000000  0.25000000
   0.50000000  0.50000000  0.25000000
   0.50000000  0.50000000  0.75000000
   0.00000000 -0.00000000  0.75000000
   0.00000000 -0.00000000  0.25000000
   0.23607357  0.34310968  0.32468805
   0.76392643  0.65689032  0.32468805
   0.76392643  0.34310968  0.17531195
   0.23607357  0.65689032  0.17531195
   0.76392643  0.65689032  0.67531195
   0.23607357  0.34310968  0.67531195
   0.23607357  0.65689032  0.82468805
   0.76392643  0.34310968  0.82468805
   0.05418338  0.33695278 -0.00000000
   0.94581662  0.66304722 -0.00000000
   0.44581662  0.83695278 -0.00000000
   0.55418338  0.16304722 -0.00000000
   0.73607357  0.84310968  0.82468805
   0.26392643  0.15689032  0.82468805
   0.26392643  0.84310968  0.67531195
   0.73607357  0.15689032  0.67531195
   0.26392643  0.15689032  0.17531195
   0.73607357  0.84310968  0.17531195
   0.73607357  0.15689032  0.32468805
   0.26392643  0.84310968  0.32468805
   0.55418338  0.83695278  0.50000000
   0.44581662  0.16304722  0.50000000
   0.94581662  0.33695278  0.50000000
   0.05418338  0.66304722  0.50000000
