TERTIARY                                
           1
     4.363329   -7.557508    0.000000
     4.363329    7.557508    0.000000
     0.000000    0.000000    3.997131
   Ce   Co   Cu
     3     3    12
Direct configuration=     7
   0.66666667  0.33333333 -0.00000000
   0.33333333  0.66666667 -0.00000000
  -0.00000000 -0.00000000 -0.00000000
  -0.00000000  0.50000000  0.50000000
   0.50000000  0.50000000  0.50000000
   0.50000000 -0.00000000  0.50000000
   0.00000000  0.66184231  0.00000000
  -0.00000000  0.33815769 -0.00000000
   0.33815769  0.33815769 -0.00000000
   0.66184231  0.66184231 -0.00000000
   0.66184231  0.00000000 -0.00000000
   0.33815769 -0.00000000 -0.00000000
   0.33459153  0.16729577  0.50000000
   0.66540847  0.83270423  0.50000000
   0.83270423  0.16729577  0.50000000
   0.16729577  0.83270423  0.50000000
   0.83270423  0.66540847  0.50000000
   0.16729577  0.33459153  0.50000000
