TERTIARY                                
           1
    11.513601    0.000000    0.000000
     0.000000   19.178863    0.000000
     0.000000    0.000000    6.158762
   Cu   Co   Ce
    12     8    28
Direct configuration=    69
   0.53083604  0.10579817  0.25000000
   0.53083604  0.89420183  0.75000000
   0.74430368  0.83697396  0.25000000
   0.74430368  0.16302604  0.75000000
   0.23803790  0.11316076  0.75000000
   0.23803790  0.88683924  0.25000000
   0.03083604  0.60579817  0.25000000
   0.03083604  0.39420183  0.75000000
   0.24430368  0.33697396  0.25000000
   0.24430368  0.66302604  0.75000000
   0.73803790  0.61316076  0.75000000
   0.73803790  0.38683924  0.25000000
   0.47996540  0.23071470  0.25000000
   0.47996540  0.76928530  0.75000000
   0.60805754  0.73321098  0.25000000
   0.60805754  0.26678902  0.75000000
  -0.02003460  0.73071470  0.25000000
  -0.02003460  0.26928530  0.75000000
   0.10805754  0.23321098  0.25000000
   0.10805754  0.76678902  0.75000000
   0.48304969  0.84150232  0.25000000
   0.48304969  0.15849768  0.75000000
   0.27690490  0.16172897  0.25000000
   0.27690490  0.83827103  0.75000000
   0.69621777  0.77710438  0.75000000
   0.69621777  0.22289562  0.25000000
   0.47108831  0.66022296  0.50967889
   0.47108831  0.33977704  0.49032111
   0.47108831  0.66022296 -0.00967889
   0.47108831  0.33977704  0.00967889
   0.41605143  0.00000000  0.50000000
   0.41605143  0.00000000 -0.00000000
   0.65376420  0.00000000  0.50000000
   0.65376420  0.00000000 -0.00000000
  -0.01695031  0.34150232  0.25000000
  -0.01695031  0.65849768  0.75000000
   0.77690490  0.66172897  0.25000000
   0.77690490  0.33827103  0.75000000
   0.19621777  0.27710438  0.75000000
   0.19621777  0.72289562  0.25000000
  -0.02891169  0.16022296  0.50967889
  -0.02891169  0.83977704  0.49032111
  -0.02891169  0.16022296 -0.00967889
  -0.02891169  0.83977704  0.00967889
   0.91605143  0.50000000  0.50000000
   0.91605143  0.50000000 -0.00000000
   0.15376420  0.50000000  0.50000000
   0.15376420  0.50000000 -0.00000000
