TERTIARY                                
           1
     4.067058    0.000000    0.000000
     0.000000    5.794821    0.000000
     0.000000    0.000000   12.336325
   Co   Ce   Cu
     4     2     6
Direct configuration=     7
  -0.00000000  0.00000000  0.62490234
   0.50000000  0.50000000  0.87509766
   0.50000000  0.50000000  0.12490234
   0.00000000  0.00000000  0.37509766
  -0.00000000 -0.00000000  0.00000000
   0.50000000  0.50000000  0.50000000
  -0.00000000  0.50000000  0.00000000
   0.00000000  0.50000000  0.76701451
   0.50000000 -0.00000000  0.73298549
   0.50000000 -0.00000000  0.50000000
   0.50000000 -0.00000000  0.26701451
  -0.00000000  0.50000000  0.23298549
