TERTIARY                                
           1
     0.000000    4.610382    0.000000
     4.598128    0.000000    0.000000
     0.000000   -0.002792  -11.096154
   Cu   Co   Ce
     2     2     4
Direct configuration=    55
   0.75017721  0.75000000  0.19610960
   0.24982279  0.25000000  0.80389040
   0.98676438  0.25000000  0.46538448
   0.01323562  0.75000000  0.53461552
   0.32087426  0.75000000 -0.00821497
   0.67912574  0.25000000  0.00821497
   0.68643778  0.75000000  0.66556027
   0.31356222  0.25000000  0.33443973
