TERTIARY                                
           1
     5.711215    0.000000    0.000000
    -0.571706    6.754754    0.000000
    -2.084328   -2.830040    7.542434
   Ce   Cu   Co
     6     6    10
Direct configuration=    97
   0.87209517  0.50584442  0.68180388
   0.12790483  0.49415558  0.31819612
   0.71364122 -0.05823649  0.88132828
   0.28635878  0.05823649  0.11867172
   0.63247482  0.77529587  0.24498412
   0.36752518  0.22470413  0.75501588
   0.81354449  0.41742948 -0.00582782
   0.18645551  0.58257052  0.00582782
   0.71393653  0.06575505  0.59168799
   0.28606347 -0.06575505  0.40831201
   0.00824105  0.85254192  0.56158027
  -0.00824105  0.14745808  0.43841973
   0.04087789  0.16262468  0.85997378
  -0.04087789  0.83737532  0.14002622
   0.64554542  0.55988325  0.39481314
   0.35445458  0.44011675  0.60518686
   0.55202969  0.64700418  0.91686627
   0.44797031  0.35299582  0.08313373
   0.45521719  0.77120439  0.60739369
   0.54478281  0.22879561  0.39260631
   0.19564626  0.76804025  0.80082511
   0.80435374  0.23195975  0.19917489
