TERTIARY                                
           1
     4.232298    0.000000    0.000000
     0.000000    4.232298    0.000000
     0.000000    0.000000   10.247783
   Cu   Ce   Co
     2     4     4
Direct configuration=    17
   0.00000000  0.50000000  0.27599057
   0.50000000  0.00000000  0.72400943
   0.00000000 -0.00000000  0.50000000
   0.50000000  0.50000000  0.50000000
  -0.00000000  0.50000000  0.85862142
   0.50000000 -0.00000000  0.14137858
  -0.00000000  0.00000000 -0.00000000
   0.50000000  0.50000000 -0.00000000
   0.00000000  0.50000000  0.64792507
   0.50000000  0.00000000  0.35207493
