TERTIARY                                
           1
     7.330718    0.000000    0.000000
     0.000000    7.576996    0.000000
     0.000000    0.000000   13.066998
   Cu   Co   Ce
    12     4    20
Direct configuration=    31
   0.50000000  0.79997088  0.05898689
  -0.00000000  0.70002912  0.44101311
   0.50000000  0.79997088  0.44101311
  -0.00000000  0.70002912  0.05898689
   0.50000000  0.23979388  0.25000000
  -0.00000000  0.26020612  0.25000000
  -0.00000000  0.29997088  0.55898689
   0.50000000  0.20002912  0.94101311
  -0.00000000  0.29997088  0.94101311
   0.50000000  0.20002912  0.55898689
  -0.00000000  0.73979388  0.75000000
   0.50000000  0.76020612  0.75000000
   0.50000000  0.93551503  0.25000000
  -0.00000000  0.56448497  0.25000000
  -0.00000000  0.43551503  0.75000000
   0.50000000  0.06448497  0.75000000
   0.29366780  0.43343474  0.39976532
   0.79366780  0.06656526  0.10023468
   0.70633220  0.43343474  0.10023468
   0.20633220  0.06656526  0.39976532
   0.25000000  0.75000000  0.25000000
   0.75000000  0.75000000  0.25000000
   0.29366780  0.43343474  0.10023468
   0.79366780  0.06656526  0.39976532
   0.70633220  0.43343474  0.39976532
   0.20633220  0.06656526  0.10023468
   0.79366780  0.93343474  0.89976532
   0.29366780  0.56656526  0.60023468
   0.20633220  0.93343474  0.60023468
   0.70633220  0.56656526  0.89976532
   0.75000000  0.25000000  0.75000000
   0.25000000  0.25000000  0.75000000
   0.79366780  0.93343474  0.60023468
   0.29366780  0.56656526  0.89976532
   0.20633220  0.93343474  0.89976532
   0.70633220  0.56656526  0.60023468
