TERTIARY                                
           1
     5.116832    0.000000    0.000000
     0.000000    7.399279    0.000000
     0.000000    0.000000   16.193179
   Cu   Co   Ce
     8    16    20
Direct configuration=    60
   0.25000000  0.00000000  0.19303736
   0.75000000  0.50000000  0.30696264
   0.25000000  0.50000000  0.30696264
   0.75000000  0.00000000  0.19303736
   0.75000000  0.50000000  0.69303736
   0.25000000  0.00000000  0.80696264
   0.75000000  0.00000000  0.80696264
   0.25000000  0.50000000  0.69303736
  -0.00000000  0.16564768  0.08277295
   0.50000000  0.33435232  0.41722705
   0.00000000  0.66564768  0.41722705
   0.50000000  0.83435232  0.08277295
   0.00000000  0.21824709  0.26903792
   0.50000000  0.28175291  0.23096208
  -0.00000000  0.71824709  0.23096208
   0.50000000  0.78175291  0.26903792
   0.50000000  0.66564768  0.58277295
   0.00000000  0.83435232  0.91722705
   0.50000000  0.16564768  0.91722705
  -0.00000000  0.33435232  0.58277295
   0.50000000  0.71824709  0.76903792
  -0.00000000  0.78175291  0.73096208
   0.50000000  0.21824709  0.73096208
  -0.00000000  0.28175291  0.76903792
   0.75000000  0.50000000 -0.00000000
   0.25000000  0.50000000 -0.00000000
  -0.00000000  0.47470232  0.15396886
   0.50000000  0.02529768  0.34603114
  -0.00000000  0.97470232  0.34603114
   0.50000000  0.52529768  0.15396886
   0.00000000  0.32724547  0.42678554
   0.50000000  0.17275453  0.07321446
   0.00000000  0.82724547  0.07321446
   0.50000000  0.67275453  0.42678554
   0.25000000  0.00000000  0.50000000
   0.75000000  0.00000000  0.50000000
   0.50000000  0.97470232  0.65396886
   0.00000000  0.52529768  0.84603114
   0.50000000  0.47470232  0.84603114
   0.00000000  0.02529768  0.65396886
   0.50000000  0.82724547  0.92678554
  -0.00000000  0.67275453  0.57321446
   0.50000000  0.32724547  0.57321446
  -0.00000000  0.17275453  0.92678554
