TERTIARY                                
           1
     6.353006  -11.003729    0.000000
     6.353006   11.003729    0.000000
     0.000000    0.000000    3.967484
   Cu   Ce   Co
     5    12    19
Direct configuration=    45
   0.33333333  0.66666667 -0.00000000
   0.66666667  0.33333333 -0.00000000
   0.11642233  0.11642233  0.50000000
   0.88357767 -0.00000000  0.50000000
  -0.00000000  0.88357767  0.50000000
   0.43687733  0.84773893  0.50000000
   0.15226107  0.58913841  0.50000000
   0.41086159  0.56312267  0.50000000
   0.84773893  0.43687733  0.50000000
   0.58913841  0.15226107  0.50000000
   0.56312267  0.41086159  0.50000000
   0.30468869  0.30468869 -0.00000000
   0.69531131 -0.00000000  0.00000000
  -0.00000000  0.69531131 -0.00000000
   0.79124119  0.79124119  0.00000000
   0.20875881 -0.00000000  0.00000000
   0.00000000  0.20875881 -0.00000000
   0.26932744  0.83625043 -0.00000000
   0.16374957  0.43307701  0.00000000
   0.56692299  0.73067256 -0.00000000
   0.83625043  0.26932744  0.00000000
   0.43307701  0.16374957  0.00000000
   0.73067256  0.56692299  0.00000000
   0.14234514  0.79530723  0.50000000
   0.20469277  0.34703791  0.50000000
   0.65296209  0.85765486  0.50000000
   0.79530723  0.14234514  0.50000000
   0.34703791  0.20469277  0.50000000
   0.85765486  0.65296209  0.50000000
   0.52678314  0.52678314  0.00000000
   0.47321686 -0.00000000  0.00000000
   0.00000000  0.47321686  0.00000000
   0.65899340  0.65899340  0.50000000
   0.34100660 -0.00000000  0.50000000
  -0.00000000  0.34100660  0.50000000
  -0.00000000 -0.00000000  0.00000000
