TERTIARY                                
           1
     0.000000   16.543808    0.000000
     4.894003    0.000000    0.000000
     0.000000   -0.025732   -5.433956
   Ce   Cu   Co
     4     8    28
Direct configuration=    57
   0.75000000  0.25000000 -0.00000000
   0.75000000  0.75000000  0.50000000
   0.25000000  0.75000000 -0.00000000
   0.25000000  0.25000000  0.50000000
   0.62965551  0.89591471  0.21232040
   0.62965551  0.10408529  0.71232040
   0.87034449  0.39591471  0.28767960
   0.87034449  0.60408529  0.78767960
   0.12965551  0.39591471  0.21232040
   0.12965551  0.60408529  0.71232040
   0.37034449  0.89591471  0.28767960
   0.37034449  0.10408529  0.78767960
   0.53779004  0.82915580  0.90782814
   0.53779004  0.17084420  0.40782814
   0.59561367  0.37519662  0.05506822
   0.59561367  0.62480338  0.55506822
   0.69276020  0.31167295  0.39089918
   0.69276020  0.68832705 -0.10910082
   0.80723980  0.81167295  0.10910082
   0.80723980  0.18832705  0.60910082
   0.90438633  0.87519662  0.44493178
   0.90438633  0.12480338 -0.05506822
   0.96220996  0.32915580  0.59217186
   0.96220996  0.67084420  0.09217186
  -0.00000000  0.14242370  0.25000000
  -0.00000000 -0.14242370  0.75000000
   0.03779004  0.32915580  0.90782814
   0.03779004  0.67084420  0.40782814
   0.09561367  0.87519662  0.05506822
   0.09561367  0.12480338  0.55506822
   0.19276020  0.81167295  0.39089918
   0.19276020  0.18832705 -0.10910082
   0.30723980  0.31167295  0.10910082
   0.30723980  0.68832705  0.60910082
   0.40438633  0.37519662  0.44493178
   0.40438633  0.62480338 -0.05506822
   0.46220996  0.82915580  0.59217186
   0.46220996  0.17084420  0.09217186
   0.50000000  0.64242370  0.25000000
   0.50000000  0.35757630  0.75000000
