TERTIARY                                
           1
     5.189916    0.000000    0.000000
     0.000000    7.662767    0.000000
     0.000000    0.000000   16.570077
   Co   Cu   Ce
     8    16    20
Direct configuration=    41
   0.25000000  0.50000000  0.85293656
   0.75000000  0.50000000  0.85293656
   0.25000000 -0.00000000  0.64706344
   0.75000000 -0.00000000  0.64706344
   0.75000000 -0.00000000  0.35293656
   0.25000000 -0.00000000  0.35293656
   0.75000000  0.50000000  0.14706344
   0.25000000  0.50000000  0.14706344
  -0.00000000  0.05873367  0.85002293
   0.50000000  0.74542142  0.61648364
   0.00000000  0.55873367  0.64997707
   0.50000000  0.94126633  0.85002293
   0.00000000  0.25457858  0.61648364
   0.50000000  0.24542142  0.88351636
   0.00000000  0.75457858  0.88351636
   0.50000000  0.44126633  0.64997707
   0.50000000  0.55873367  0.35002293
   0.00000000  0.24542142  0.11648364
   0.50000000  0.05873367  0.14997707
  -0.00000000  0.44126633  0.35002293
   0.50000000  0.75457858  0.11648364
   0.00000000  0.74542142  0.38351636
   0.50000000  0.25457858  0.38351636
  -0.00000000  0.94126633  0.14997707
  -0.00000000  0.31432711  0.95475896
   0.50000000  0.15685259  0.73622640
  -0.00000000  0.84314741  0.73622640
   0.50000000  0.65685259  0.76377360
   0.25000000  0.50000000  0.50000000
   0.75000000  0.50000000  0.50000000
   0.00000000  0.34314741  0.76377360
   0.50000000  0.68567289  0.95475896
   0.50000000  0.18567289  0.54524104
  -0.00000000  0.81432711  0.54524104
   0.50000000  0.81432711  0.45475896
  -0.00000000  0.65685259  0.23622640
   0.50000000  0.34314741  0.23622640
  -0.00000000  0.15685259  0.26377360
   0.75000000 -0.00000000 -0.00000000
   0.25000000 -0.00000000 -0.00000000
   0.50000000  0.84314741  0.26377360
   0.00000000  0.18567289  0.45475896
  -0.00000000  0.68567289  0.04524104
   0.50000000  0.31432711  0.04524104
