TERTIARY                                
           1
     5.777515    0.000000    0.000000
     0.000000    5.777515    0.000000
     0.000000    0.000000   11.847625
   Co   Ce   Cu
     4     4     8
Direct configuration=     8
   0.50000000  0.00000000  0.25000000
   0.50000000  0.50000000  0.00000000
  -0.00000000  0.50000000  0.75000000
  -0.00000000 -0.00000000  0.50000000
  -0.00000000  0.00000000 -0.00000000
  -0.00000000  0.50000000  0.25000000
   0.50000000  0.50000000  0.50000000
   0.50000000 -0.00000000  0.75000000
   0.50000000  0.50000000  0.20583808
  -0.00000000  0.50000000  0.54416192
  -0.00000000  0.50000000 -0.04416192
  -0.00000000 -0.00000000  0.29416192
   0.00000000 -0.00000000  0.70583808
   0.50000000  0.00000000  0.04416192
   0.50000000  0.00000000  0.45583808
   0.50000000  0.50000000  0.79416192
