TERTIARY                                
           1
     2.583741   -4.475171    0.000000
     2.583741    4.475171    0.000000
     0.000000    0.000000   24.531715
   Cu   Co   Ce
     9     9    18
Direct configuration=    46
   0.33333333  0.66666667  0.36543908
   0.66666667  0.33333333  0.51219474
   0.33333333  0.66666667  0.47427312
  -0.00000000  0.00000000  0.69877241
   0.33333333  0.66666667  0.84552808
  -0.00000000  0.00000000  0.80760646
   0.66666667  0.33333333  0.03210575
  -0.00000000  0.00000000  0.17886141
   0.66666667  0.33333333  0.14093979
   0.66666667  0.33333333  0.60512687
   0.33333333  0.66666667  0.68138336
  -0.00000000  0.00000000  0.51359415
   0.33333333  0.66666667  0.93846020
  -0.00000000  0.00000000  0.01471670
   0.66666667  0.33333333  0.84692749
  -0.00000000  0.00000000  0.27179353
   0.66666667  0.33333333  0.34805003
   0.33333333  0.66666667  0.18026082
   0.84167834  0.15832166  0.41523699
   0.16929123  0.83070877  0.58964812
   0.31664332  0.15832166  0.41523699
   0.66141754  0.83070877  0.58964812
   0.84167834  0.68335668  0.41523699
   0.16929123  0.33858246  0.58964812
   0.50834501  0.49165499  0.74857033
   0.83595790  0.16404210  0.92298145
   0.98330998  0.49165499  0.74857033
   0.32808421  0.16404210  0.92298145
   0.50834501  0.01669002  0.74857033
   0.83595790  0.67191579  0.92298145
   0.17501168  0.82498832  0.08190366
   0.50262456  0.49737544  0.25631479
   0.64997665  0.82498832  0.08190366
  -0.00524913  0.49737544  0.25631479
   0.17501168  0.35002335  0.08190366
   0.50262456  0.00524913  0.25631479
