TERTIARY                                
           1
     7.333512    0.000000    0.000000
     0.000000    7.333512    0.000000
     0.000000    0.000000    7.333512
   Co   Ce   Cu
     4     4    16
Direct configuration=     3
   0.25000000  0.25000000  0.75000000
   0.25000000  0.75000000  0.25000000
   0.75000000  0.25000000  0.25000000
   0.75000000  0.75000000  0.75000000
   0.50000000  0.00000000  0.00000000
   0.50000000  0.50000000  0.50000000
   0.00000000  0.00000000  0.50000000
   0.00000000  0.50000000  0.00000000
   0.12340787  0.12340787  0.12340787
   0.12340787  0.37659213  0.37659213
   0.37659213  0.12340787  0.37659213
   0.37659213  0.37659213  0.12340787
   0.12340787  0.62340787  0.62340787
   0.12340787  0.87659213  0.87659213
   0.37659213  0.62340787  0.87659213
   0.37659213  0.87659213  0.62340787
   0.62340787  0.12340787  0.62340787
   0.62340787  0.37659213  0.87659213
   0.87659213  0.12340787  0.87659213
   0.87659213  0.37659213  0.62340787
   0.62340787  0.62340787  0.12340787
   0.62340787  0.87659213  0.37659213
   0.87659213  0.62340787  0.37659213
   0.87659213  0.87659213  0.12340787
