TERTIARY                                
           1
     0.000000   10.416802    0.000000
     6.545225    0.000000    0.000000
     0.000000   -2.406736  -13.392084
   Cu   Ce   Co
    20     8    24
Direct configuration=   117
   0.73851368  0.82733930  0.75184903
   0.51194565  0.17688142  0.03587399
   0.73851368  0.17266070  0.25184903
   0.50000000  0.82023303  0.75000000
   0.51194565  0.82311858  0.53587399
   0.50000000  0.17976697  0.25000000
   0.48805435  0.82311858 -0.03587399
   0.48805435  0.17688142  0.46412601
   0.26148632  0.82733930  0.74815097
   0.26148632  0.17266070  0.24815097
   0.23851368  0.32733930  0.75184903
   0.01194565  0.67688142  0.03587399
   0.23851368  0.67266070  0.25184903
  -0.00000000  0.32023303  0.75000000
   0.01194565  0.32311858  0.53587399
  -0.00000000  0.67976697  0.25000000
  -0.01194565  0.32311858 -0.03587399
  -0.01194565  0.67688142  0.46412601
   0.76148632  0.32733930  0.74815097
   0.76148632  0.67266070  0.24815097
   0.79711595  0.00234011  0.56651808
   0.20288405  0.00234011  0.93348192
   0.79711595 -0.00234011  0.06651808
   0.20288405 -0.00234011  0.43348192
   0.29711595  0.50234011  0.56651808
   0.70288405  0.50234011  0.93348192
   0.29711595  0.49765989  0.06651808
   0.70288405  0.49765989  0.43348192
   0.35982072  0.08594480  0.65157847
   0.58106045  0.88131168  0.15984351
   0.35982072 -0.08594480  0.15157847
  -0.13060951  0.05157541  0.42753360
   0.64017928  0.08594480  0.84842153
   0.64017928 -0.08594480  0.34842153
   0.13060951 -0.05157541  0.57246640
   0.13060951  0.05157541  0.07246640
   0.41893955  0.11868832  0.84015649
   0.41893955  0.88131168  0.34015649
   0.58106045  0.11868832  0.65984351
  -0.13060951 -0.05157541  0.92753360
   0.85982072  0.58594480  0.65157847
   0.08106045  0.38131168  0.15984351
   0.85982072  0.41405520  0.15157847
   0.36939049  0.55157541  0.42753360
   0.14017928  0.58594480  0.84842153
   0.14017928  0.41405520  0.34842153
   0.63060951  0.44842459  0.57246640
   0.63060951  0.55157541  0.07246640
   0.91893955  0.61868832  0.84015649
   0.91893955  0.38131168  0.34015649
   0.08106045  0.61868832  0.65984351
   0.36939049  0.44842459  0.92753360
