TERTIARY                                
           1
    12.389789    0.000000    0.000000
     0.000000   12.775018    0.000000
     0.000000    0.000000   18.010159
   Co   Cu   Ce
     4     2     2
Direct configuration=     6
   0.31988397  0.00000000 -0.00000000
   0.68011603  0.00000000  0.00000000
   0.81988397  0.50000000  0.50000000
   0.18011603  0.50000000  0.50000000
  -0.00000000 -0.00000000  0.00000000
   0.50000000  0.50000000  0.50000000
   0.50000000 -0.00000000  0.00000000
   0.00000000  0.50000000  0.50000000
