TERTIARY                                
           1
     8.938029  -15.481121    0.000000
     8.938029   15.481121    0.000000
     0.000000    0.000000    3.770412
   Ce   Co   Cu
    12    36    24
Direct configuration=    60
  -0.00000000  0.50000000  0.00000000
   0.50000000  0.50000000  0.00000000
   0.30278416  0.04794602  0.00000000
   0.04794602  0.74516186 -0.00000000
   0.50000000 -0.00000000  0.00000000
   0.66666667  0.33333333  0.50000000
   0.95205398  0.25483814  0.00000000
   0.25483814  0.30278416  0.00000000
   0.74516186  0.69721584  0.00000000
   0.69721584  0.95205398 -0.00000000
  -0.00000000 -0.00000000  0.00000000
   0.33333333  0.66666667  0.50000000
   0.97498497  0.11992821  0.50000000
   0.79736412  0.15949785 -0.00000000
   0.65243950  0.21181337 -0.00000000
   0.80356980  0.08279493  0.50000000
   0.43876689  0.87753409  0.50000000
   0.02501503  0.88007179  0.50000000
   0.27922513  0.19643020  0.50000000
   0.88740685  0.31140869  0.50000000
   0.15949785  0.36213374 -0.00000000
   0.20263588  0.84050215  0.00000000
   0.08279493  0.27922513  0.50000000
   0.55937387  0.34756050  0.00000000
   0.44062613  0.65243950 -0.00000000
   0.42400184  0.11259315  0.50000000
   0.91720507  0.72077487  0.50000000
   0.11259315  0.68859131  0.50000000
   0.12246591  0.56123280  0.50000000
   0.78818663  0.44062613  0.00000000
   0.21181337  0.55937387 -0.00000000
   0.84050215  0.63786626  0.00000000
   0.19643020  0.91720507  0.50000000
   0.11992821  0.14494324  0.50000000
   0.72077487  0.80356980  0.50000000
   0.57599816  0.88740685  0.50000000
   0.43876720  0.56123311  0.50000000
   0.14494324  0.02501503  0.50000000
   0.63786626  0.79736412  0.00000000
   0.34756050  0.78818663  0.00000000
   0.31140869  0.42400184  0.50000000
   0.87753409  0.43876720  0.50000000
   0.56123280  0.43876689  0.50000000
   0.68859131  0.57599816  0.50000000
   0.85505676  0.97498497  0.50000000
   0.56123311  0.12246591  0.50000000
   0.88007179  0.85505676  0.50000000
   0.36213374  0.20263588  0.00000000
   0.53664464  0.73283178  0.50000000
   0.04290355  0.39899265  0.50000000
   0.06970174  0.19001941 -0.00000000
   0.80709268  0.31438526  0.00000000
   0.93029826  0.80998059  0.00000000
   0.73283178  0.19618714  0.50000000
   0.19618714  0.46335536  0.50000000
   0.80998059  0.87968233 -0.00000000
   0.50729258  0.19290732 -0.00000000
   0.31438526  0.50729258  0.00000000
   0.12031767  0.93029826  0.00000000
   0.60100735  0.64391090  0.50000000
   0.95709645  0.60100735  0.50000000
   0.19001941  0.12031767 -0.00000000
   0.80381286  0.53664464  0.50000000
   0.68561474  0.49270742 -0.00000000
   0.35608910  0.95709645  0.50000000
   0.26716822  0.80381286  0.50000000
   0.64391090  0.04290355  0.50000000
   0.87968233  0.06970174  0.00000000
   0.46335536  0.26716822  0.50000000
   0.39899265  0.35608910  0.50000000
   0.49270742  0.80709268 -0.00000000
   0.19290732  0.68561474 -0.00000000
