TERTIARY                                
           1
     5.992553  -10.379406    0.000000
     5.992553   10.379406    0.000000
     0.000000    0.000000   38.792975
   Co   Cu   Ce
    72    15   144
Direct configuration=    98
   0.93928410  0.75032717  0.24925294
  -0.00000000 -0.00000000  0.16390577
   0.81104307  0.06071590  0.24925294
   0.27804999  0.41989085  0.25192604
   0.91210877  0.52012249  0.24609362
   0.08655752  0.47517420  0.08140730
   0.33333333  0.66666667  0.25653553
   0.18678916  0.94134705  0.08723972
   0.14184086  0.72195001  0.25192604
  -0.00000000 -0.00000000  0.02896438
   0.60801372  0.08789123  0.24609362
   0.24967283  0.18895693  0.24925294
   0.41699384  0.14437640  0.08408040
   0.05865295  0.24544210  0.08723972
   0.66666667  0.33333333  0.30436895
   0.52482580  0.61138332  0.08140730
   0.47987751  0.39198628  0.24609362
   0.33333333  0.66666667  0.07679780
   0.58010915  0.85815914  0.25192604
   0.75455790  0.81321084  0.08723972
   0.38861668  0.91344248  0.08140730
   0.85562360  0.27261744  0.08408040
   0.66666667  0.33333333  0.16942756
   0.72738256  0.58300616  0.08408040
   0.60595077  0.08366051  0.58258627
   0.66666667  0.33333333  0.49723911
   0.47770974  0.39404923  0.58258627
   0.94471666  0.75322419  0.58525937
   0.57877544  0.85345583  0.57942695
   0.75322419  0.80850753  0.41474063
  -0.00000000 -0.00000000  0.58986886
   0.85345583  0.27468039  0.42057305
   0.80850753  0.05528334  0.58525937
   0.66666667  0.33333333  0.36229771
   0.27468039  0.42122456  0.57942695
  -0.08366051  0.52229026  0.58258627
   0.08366051  0.47770974  0.41741373
   0.72531961  0.57877544  0.42057305
   0.33333333  0.66666667  0.63770229
   0.19149247  0.94471666  0.41474063
   0.14654417  0.72531961  0.57942695
  -0.00000000 -0.00000000  0.41013114
   0.24677581  0.19149247  0.58525937
   0.42122456  0.14654417  0.42057305
   0.05528334  0.24677581  0.41474063
   0.52229026  0.60595077  0.41741373
   0.33333333  0.66666667  0.50276089
   0.39404923 -0.08366051  0.41741373
   0.27261744  0.41699384  0.91591960
   0.33333333  0.66666667  0.83057244
   0.14437640  0.72738256  0.91591960
   0.61138332  0.08655752  0.91859270
   0.24544210  0.18678916  0.91276028
   0.41989085  0.14184086  0.74807396
   0.66666667  0.33333333  0.92320220
   0.52012249  0.60801372  0.75390638
   0.47517420  0.38861668  0.91859270
   0.33333333  0.66666667  0.69563105
   0.94134705  0.75455790  0.91276028
   0.58300616  0.85562360  0.91591960
   0.75032717  0.81104307  0.75074706
   0.39198628  0.91210877  0.75390638
  -0.00000000 -0.00000000  0.97103562
   0.85815914  0.27804999  0.74807396
   0.81321084  0.05865295  0.91276028
   0.66666667  0.33333333  0.74346447
   0.91344248  0.52482580  0.91859270
   0.08789123  0.47987751  0.75390638
   0.72195001  0.58010915  0.74807396
   0.18895693  0.93928410  0.75074706
  -0.00000000 -0.00000000  0.83609423
   0.06071590  0.24967283  0.75074706
  -0.00000000 -0.00000000  0.33954515
  -0.00000000 -0.00000000  0.09181260
   0.66666667  0.33333333 -0.00621182
   0.33333333  0.66666667  0.16666667
   0.66666667  0.33333333  0.24152073
   0.66666667  0.33333333  0.67287849
   0.66666667  0.33333333  0.42514594
   0.33333333  0.66666667  0.32712151
  -0.00000000 -0.00000000  0.50000000
   0.33333333  0.66666667  0.57485406
   0.33333333  0.66666667  0.00621182
   0.33333333  0.66666667  0.75847927
  -0.00000000 -0.00000000  0.66045485
   0.66666667  0.33333333  0.83333333
  -0.00000000 -0.00000000  0.90818740
   0.15238823  0.70937570  0.04412814
   0.82922497  0.04324211  0.12967872
   0.70072813  0.54553344  0.28874120
   0.04213560  0.18408150  0.21177673
   0.34988940 -0.01918817  0.02838813
   0.01819334  0.31984565  0.13962578
   0.14479977  0.49487902  0.21667427
   0.82586538  0.84463436  0.28373195
   0.21220011  0.17813864  0.04459214
   0.85074816  0.47527923  0.12155660
   0.51130102  0.35210230  0.04960138
   0.16154568  0.68341258  0.11665906
  -0.01348768  0.63498565  0.19370755
   0.64747849 -0.03574424  0.30494520
   0.29062430  0.44301253  0.04412814
  -0.04324211  0.78598285  0.12967872
   0.35007925  0.85520023  0.21667427
   0.01876897  0.17413462  0.28373195
   0.63092243  0.65011060  0.02838813
   0.30165232 -0.01819334  0.13962578
   0.14194590 -0.04213560  0.21177673
   0.84480531  0.29927187  0.28874120
   0.45264952  0.16255830  0.20365462
   0.10967920  0.48572156  0.28920519
   0.55698747  0.84761177  0.04412814
   0.21401715  0.17077503  0.12967872
   0.82186136  0.03406146  0.04459214
   0.52472077  0.37546893  0.12155660
   0.36501435  0.35152667  0.19370755
   0.03574424  0.68322273  0.30494520
   0.31658742  0.47813310  0.11665906
   0.64789770  0.15919872  0.04960138
   0.37604237  0.89032080  0.28920519
   0.70990878  0.54735048  0.20365462
   0.01918817  0.36907757  0.02838813
   0.68015435  0.69834768  0.13962578
   0.50512098  0.64992075  0.21667427
   0.15536564 -0.01876897  0.28373195
   0.45446656  0.15519469  0.28874120
   0.81591850  0.85805410  0.21177673
   0.84080128  0.48869898  0.04960138
   0.52186690  0.83845432  0.11665906
   0.64847333  0.01348768  0.19370755
   0.31677727  0.35252151  0.30494520
  -0.03406146  0.78779989  0.04459214
   0.62453107  0.14925184  0.12155660
   0.51427844  0.62395763  0.28920519
   0.83744170  0.29009122  0.20365462
   0.81905490  0.04270903  0.37746147
   0.49589163  0.37657545  0.46301205
   0.36739479  0.87886677  0.62207453
   0.70880227  0.51741483  0.54511007
   0.01655606  0.31414516  0.36172147
   0.68486001  0.65317899  0.47295912
   0.81146644  0.82821235  0.55000760
   0.49253205  0.17796769  0.61706529
   0.87886677  0.51147198  0.37792547
   0.51741483  0.80861256  0.45488993
   0.17796769  0.68543564  0.38293471
   0.82821235  0.01674592  0.44999240
   0.65317899 -0.03168102  0.52704088
   0.31414516  0.29758910  0.63827853
   0.95729097  0.77634586  0.37746147
   0.62342455  0.11931619  0.46301205
   0.01674592  0.18853356  0.55000760
   0.68543564  0.50746795  0.61706529
   0.29758910 -0.01655606  0.36172147
  -0.03168102  0.31513999  0.47295912
   0.80861256  0.29119773  0.54511007
   0.51147198  0.63260521  0.62207453
   0.11931619  0.49589163  0.53698795
   0.77634586  0.81905490  0.62253853
   0.22365414  0.18094510  0.37746147
   0.88068381  0.50410837  0.46301205
   0.48852802  0.36739479  0.37792547
   0.19138744  0.70880227  0.45488993
   0.03168102  0.68486001  0.52704088
   0.70241090  0.01655606  0.63827853
  -0.01674592  0.81146644  0.44999240
   0.31456436  0.49253205  0.38293471
   0.04270903  0.22365414  0.62253853
   0.37657545  0.88068381  0.53698795
   0.68585484  0.70241090  0.36172147
   0.34682101  0.03168102  0.47295912
   0.17178765 -0.01674592  0.55000760
   0.82203231  0.31456436  0.61706529
   0.12113323  0.48852802  0.62207453
   0.48258517  0.19138744  0.54511007
   0.50746795  0.82203231  0.38293471
   0.18853356  0.17178765  0.44999240
   0.31513999  0.34682101  0.52704088
  -0.01655606  0.68585484  0.63827853
   0.63260521  0.12113323  0.37792547
   0.29119773  0.48258517  0.45488993
   0.18094510  0.95729097  0.62253853
   0.50410837  0.62342455  0.53698795
   0.48572156  0.37604237  0.71079481
   0.16255830  0.70990878  0.79634538
   0.03406146  0.21220011  0.95540786
   0.37546893  0.85074816  0.87844340
   0.68322273  0.64747849  0.69505480
   0.35152667 -0.01348768  0.80629245
   0.47813310  0.16154568  0.88334094
   0.15919872  0.51130102  0.95039862
   0.54553344  0.84480531  0.71125880
   0.18408150  0.14194590  0.78822327
   0.84463436  0.01876897  0.71626805
   0.49487902  0.35007925  0.78332573
   0.31984565  0.30165232  0.86037422
  -0.01918817  0.63092243  0.97161187
   0.62395763  0.10967920  0.71079481
   0.29009122  0.45264952  0.79634538
   0.68341258  0.52186690  0.88334094
   0.35210230  0.84080128  0.95039862
  -0.03574424  0.31677727  0.69505480
   0.63498565  0.64847333  0.80629245
   0.47527923  0.62453107  0.87844340
   0.17813864 -0.03406146  0.95540786
   0.78598285  0.82922497  0.87032128
   0.44301253  0.15238823  0.95587186
   0.89032080  0.51427844  0.71079481
   0.54735048  0.83744170  0.79634538
   0.15519469  0.70072813  0.71125880
   0.85805410  0.04213560  0.78822327
   0.69834768  0.01819334  0.86037422
   0.36907757  0.34988940  0.97161187
   0.64992075  0.14479977  0.78332573
  -0.01876897  0.82586538  0.71626805
   0.70937570  0.55698747  0.95587186
   0.04324211  0.21401715  0.87032128
   0.35252151  0.03574424  0.69505480
   0.01348768  0.36501435  0.80629245
   0.83845432  0.31658742  0.88334094
   0.48869898  0.64789770  0.95039862
   0.78779989  0.82186136  0.95540786
   0.14925184  0.52472077  0.87844340
   0.17413462  0.15536564  0.71626805
   0.85520023  0.50512098  0.78332573
  -0.01819334  0.68015435  0.86037422
   0.65011060  0.01918817  0.97161187
   0.29927187  0.45446656  0.71125880
  -0.04213560  0.81591850  0.78822327
   0.84761177  0.29062430  0.95587186
   0.17077503 -0.04324211  0.87032128
