TERTIARY                                
           1
     0.000000    6.342764    0.000000
    11.758017    0.000000    0.000000
     0.000000   -4.944998   -6.268212
   Ce   Cu   Co
    12     4    12
Direct configuration=    32
   0.69321178  0.37774557  0.17228871
   0.73186463  0.77596278  0.25468776
   0.31291612  0.93179593  0.74779125
   0.26813537  0.27596278  0.24531224
   0.68708388  0.43179593  0.75220875
   0.30678822  0.87774557  0.32771129
   0.69321178  0.12225443  0.67228871
   0.31291612  0.56820407  0.24779125
   0.73186463  0.72403722  0.75468776
   0.68708388  0.06820407  0.25220875
   0.26813537  0.22403722  0.74531224
   0.30678822  0.62225443  0.82771129
  -0.01828026  0.43426606  0.60185638
   0.01828026  0.93426606  0.89814362
  -0.01828026  0.06573394  0.10185638
   0.01828026  0.56573394  0.39814362
   0.25364903  0.10925471 -0.00628985
   0.77755307  0.90355079  0.52989594
   0.22244693  0.40355079  0.97010406
   0.74635097  0.60925471  0.50628985
   0.75947530  0.25678057  0.49854121
   0.24052470  0.75678057  0.00145879
   0.75947530  0.24321943 -0.00145879
   0.24052470  0.74321943  0.50145879
   0.25364903  0.39074529  0.49371015
   0.77755307  0.59644921  0.02989594
   0.22244693  0.09644921  0.47010406
   0.74635097  0.89074529  0.00628985
