TERTIARY                                
           1
     4.594399   -7.957733    0.000000
     4.594399    7.957733    0.000000
     0.000000    0.000000    3.556117
   Ce   Co   Cu
     2    12     7
Direct configuration=    41
   0.66666667  0.33333333 -0.00000000
   0.33333333  0.66666667  0.50000000
   0.06008338  0.53022069  0.00000000
   0.47013730  0.93991662 -0.00000000
   0.46977931  0.52986270  0.00000000
   0.31599168  0.13184194 -0.00000000
   0.81585026  0.68400832  0.00000000
   0.86815806  0.18414974 -0.00000000
   0.43419016  0.07447485  0.50000000
   0.64028469  0.56580984  0.50000000
   0.92552515  0.35971531  0.50000000
   0.15025130  0.99121875  0.50000000
   0.84096746  0.84974870  0.50000000
   0.00878125  0.15903254  0.50000000
   0.16694134  0.82397766  0.00000000
   0.65703632  0.83305866  0.00000000
   0.17602234  0.34296368 -0.00000000
   0.35241060  0.31859845  0.50000000
   0.96618784  0.64758940  0.50000000
   0.68140155  0.03381216  0.50000000
  -0.00000000  0.00000000 -0.00000000
