TERTIARY                                
           1
     9.588760    0.000000    0.000000
    -3.568674   12.225421    0.000000
    -4.736473   -3.518043   15.045619
   Ce   Cu   Co
    24     8    16
Direct configuration=   248
   0.54763417  0.19463066  0.43729595
   0.10139349  0.59938146  0.46922431
   0.36488271  0.46055005  0.32335487
   0.45236583  0.80536934  0.56270405
   0.63511729  0.53944995  0.67664513
   0.46095788  0.46317265  0.88640817
   0.13519434  0.38494820  0.06893418
   0.75140081  0.82560446  0.75938276
   0.65393907  0.34827263  0.26744694
   0.88602512  0.16015565  0.25861578
   0.08092067  0.17613694  0.88379226
   0.45813581  0.04008093  0.09488098
   0.91907933  0.82386306  0.11620774
   0.24859919  0.17439554  0.24061724
   0.89860651  0.40061854  0.53077569
   0.31563558  0.72773098 -0.00985280
   0.53904212  0.53682735  0.11359183
  -0.08969028  0.08492986  0.05526307
   0.86480566  0.61505180  0.93106582
   0.08969028  0.91507014  0.94473693
   0.68436442  0.27226902  0.00985280
   0.54186419  0.95991907  0.90511902
   0.11397488 -0.16015565  0.74138422
   0.34606093  0.65172737  0.73255306
   0.37423561  0.42766304  0.49476608
   0.08645773  0.34106566  0.41776312
   0.23586815  0.16600435  0.06269551
  -0.08645773  0.65893434  0.58223688
   0.60080278  0.69902979  0.99257209
   0.76413185  0.83399565  0.93730449
   0.62576439  0.57233696  0.50523392
   0.39919722  0.30097021  0.00742791
   0.25817773  0.25888056  0.36584075
   0.57549110  0.64990478  0.82516905
   0.25974294  0.44105791 -0.02086372
   0.17675451  0.80457774  0.05088359
   0.79646512  0.50105731  0.44823718
   0.54935401  0.36063862  0.42725555
   0.19992170  0.76473176  0.64867684
   0.36284283  0.08471869  0.96203050
   0.63715717  0.91528131  0.03796950
   0.82324549  0.19542226  0.94911641
   0.20353488  0.49894269  0.55176282
   0.74025706  0.55894209  0.02086372
   0.74182227  0.74111944  0.63415925
   0.80007830  0.23526824  0.35132316
   0.45064599  0.63936138  0.57274445
   0.42450890  0.35009522  0.17483095
