TERTIARY                                
           1
     5.164922    0.000000    0.000000
     0.000000    8.730465    0.000000
     0.000000    0.000000    9.305180
   Cu   Ce   Co
     4     4     4
Direct configuration=     8
   0.25000000  0.08062992  0.23762193
   0.75000000  0.91937008  0.76237807
   0.25000000  0.58062992  0.26237807
   0.75000000  0.41937008  0.73762193
   0.75000000  0.81310756  0.40226076
   0.25000000  0.68689244  0.90226076
   0.75000000  0.31310756  0.09773924
   0.25000000  0.18689244  0.59773924
   0.25000000  0.47843449  0.00174745
   0.75000000  0.02156551  0.50174745
   0.25000000 -0.02156551  0.49825255
   0.75000000  0.52156551 -0.00174745
