TERTIARY                                
           1
     0.000000   10.518118    0.000000
     8.341787    0.000000    0.000000
     0.000000   -1.421503   -5.676451
   Co   Cu   Ce
     8     8    12
Direct configuration=   141
   0.79071889 -0.00000000  0.74647249
   0.45439751  0.15171585  0.33969971
   0.45439751  0.84828415  0.33969971
   0.14940198 -0.00000000  0.71083018
   0.29071889  0.50000000  0.74647249
   0.95439751  0.65171585  0.33969971
   0.95439751  0.34828415  0.33969971
   0.64940198  0.50000000  0.71083018
   0.78931803  0.15735198  0.10714884
   0.34642884 -0.00000000  0.59200531
  -0.06532356 -0.00000000  0.40992264
   0.78931803  0.84264802  0.10714884
   0.28931803  0.65735198  0.10714884
   0.84642884  0.50000000  0.59200531
   0.43467644  0.50000000  0.40992264
   0.28931803  0.34264802  0.10714884
   0.55684207 -0.00000000  0.95694033
   0.65577410  0.77288878  0.46292023
   0.65577410  0.22711122  0.46292023
   0.46475797  0.30311392  0.83531233
   0.46475797  0.69688608  0.83531233
   0.24543759 -0.00000000  0.09366682
   0.05684207  0.50000000  0.95694033
   0.15577410  0.27288878  0.46292023
   0.15577410  0.72711122  0.46292023
   0.96475797  0.80311392  0.83531233
   0.96475797  0.19688608  0.83531233
   0.74543759  0.50000000  0.09366682
