TERTIARY                                
           1
     3.543045    0.000000    0.000000
     0.000000    5.942372    0.000000
     0.000000    0.000000   11.483349
   Ce   Cu   Co
     4    16     4
Direct configuration=    95
  -0.00000000  0.69085739  0.29700955
   0.00000000  0.30914261  0.70299045
   0.00000000  0.19085739  0.20299045
   0.00000000  0.80914261  0.79700955
   0.50000000  0.93326228  0.25896702
   0.50000000  0.06673772  0.74103298
   0.50000000  0.43326228  0.24103298
   0.50000000  0.56673772  0.75896702
   0.50000000  0.03053575  0.08525332
   0.50000000 -0.03053575  0.91474668
   0.50000000  0.53053575  0.41474668
   0.50000000  0.46946425  0.58525332
   0.50000000  0.87239100  0.43969622
   0.50000000  0.12760900  0.56030378
   0.50000000  0.37239100  0.06030378
   0.50000000  0.62760900  0.93969622
   0.50000000  0.19408136  0.37666636
   0.50000000 -0.19408136  0.62333364
   0.50000000  0.69408136  0.12333364
   0.50000000  0.30591864  0.87666636
   0.00000000  0.80609906  0.01862079
  -0.00000000  0.19390094  0.98137921
   0.00000000  0.30609906  0.48137921
  -0.00000000  0.69390094  0.51862079
