TERTIARY                                
           1
     3.977739    0.000000    0.000000
     0.000000   10.065733    0.000000
     0.000000    0.000000   12.970915
   Ce   Cu   Co
    12     8    12
Direct configuration=    31
  -0.00000000  0.15977908  0.25000000
   0.00000000  0.43304159  0.11494285
   0.00000000  0.43304159  0.38505715
   0.50000000  0.06695841  0.61494285
   0.50000000  0.34022092  0.75000000
   0.50000000  0.06695841  0.88505715
   0.50000000  0.65977908  0.25000000
   0.50000000  0.93304159  0.11494285
   0.50000000  0.93304159  0.38505715
  -0.00000000  0.56695841  0.61494285
   0.00000000  0.84022092  0.75000000
   0.00000000  0.56695841  0.88505715
   0.50000000  0.23462248  0.06988501
   0.00000000  0.26537752  0.56988501
   0.50000000  0.23462248  0.43011499
  -0.00000000  0.26537752  0.93011499
  -0.00000000  0.73462248  0.06988501
   0.50000000  0.76537752  0.56988501
   0.00000000  0.73462248  0.43011499
   0.50000000  0.76537752  0.93011499
  -0.00000000  0.12132349  0.75000000
   0.50000000  0.41003681  0.93345295
   0.50000000  0.41003681  0.56654705
   0.00000000  0.08996319  0.06654705
   0.50000000  0.37867651  0.25000000
  -0.00000000  0.08996319  0.43345295
   0.50000000  0.62132349  0.75000000
  -0.00000000  0.91003681  0.93345295
   0.00000000  0.91003681  0.56654705
   0.50000000  0.58996319  0.06654705
   0.00000000  0.87867651  0.25000000
   0.50000000  0.58996319  0.43345295
