TERTIARY                                
           1
     6.232252  -10.794577    0.000000
     6.232252   10.794577    0.000000
     0.000000    0.000000    3.536541
   Cu   Co   Ce
     8    16    12
Direct configuration=    60
  -0.00000000  0.10841963  0.50000000
   0.89158037  0.89158037  0.50000000
   0.10841963  0.00000000  0.50000000
   0.66666667  0.33333333  0.00000000
   0.33333333  0.66666667  0.00000000
  -0.00000000  0.43725995 -0.00000000
   0.56274005  0.56274005  0.00000000
   0.43725995 -0.00000000  0.00000000
   0.00000000  0.67476423  0.50000000
   0.32523577  0.32523577  0.50000000
   0.67476423 -0.00000000  0.50000000
   0.73739286  0.18329140  0.00000000
   0.81670860  0.55410146 -0.00000000
   0.44589854  0.26260714 -0.00000000
   0.18329140  0.73739286 -0.00000000
   0.55410146  0.81670860  0.00000000
   0.26260714  0.44589854 -0.00000000
   0.88084817  0.26755612  0.50000000
   0.73244388  0.61329205  0.50000000
   0.38670795  0.11915183  0.50000000
   0.26755612  0.88084817  0.50000000
   0.61329205  0.73244388  0.50000000
   0.11915183  0.38670795  0.50000000
   0.00000000 -0.00000000 -0.00000000
  -0.00000000  0.79557403 -0.00000000
   0.20442597  0.20442597  0.00000000
   0.79557403  0.00000000  0.00000000
   0.59852007  0.14978838  0.50000000
   0.85021162  0.44873169  0.50000000
   0.55126831  0.40147993  0.50000000
   0.14978838  0.59852007  0.50000000
   0.44873169  0.85021162  0.50000000
   0.40147993  0.55126831  0.50000000
  -0.00000000  0.24270035  0.00000000
   0.75729965  0.75729965  0.00000000
   0.24270035  0.00000000 -0.00000000
