TERTIARY                                
           1
     3.980338    0.000000    0.000000
     0.000000    6.139504    0.000000
     0.000000    0.000000    7.316494
   Cu   Ce   Co
     4     4     4
Direct configuration=    38
   0.75000000  0.96151608  0.71480752
   0.25000000  0.03848392  0.28519248
   0.75000000  0.46151608  0.78519248
   0.25000000  0.53848392  0.21480752
   0.75000000  0.33250851  0.42763252
   0.25000000  0.66749149  0.57236748
   0.75000000  0.83250851  0.07236748
   0.25000000  0.16749149  0.92763252
   0.75000000  0.84237094  0.41006010
   0.25000000  0.15762906  0.58993990
   0.75000000  0.34237094  0.08993990
   0.25000000  0.65762906  0.91006010
