TERTIARY                                
           1
     8.371955    0.000000    0.000000
     0.000000    8.371955    0.000000
     0.000000    0.000000    4.881780
   Ce   Cu   Co
     2     8    16
Direct configuration=     7
  -0.00000000 -0.00000000 -0.00000000
   0.50000000  0.50000000  0.50000000
  -0.00000000  0.35334461 -0.00000000
  -0.00000000  0.64665539  0.00000000
   0.85334461  0.50000000  0.50000000
   0.14665539  0.50000000  0.50000000
   0.50000000  0.85334461  0.50000000
   0.50000000  0.14665539  0.50000000
   0.35334461 -0.00000000 -0.00000000
   0.64665539 -0.00000000  0.00000000
   0.25000000  0.25000000  0.25000000
   0.25000000  0.25000000  0.75000000
   0.75000000  0.25000000  0.75000000
   0.75000000  0.25000000  0.25000000
  -0.00000000  0.78918839  0.50000000
  -0.00000000  0.21081161  0.50000000
   0.28918839  0.50000000  0.00000000
   0.71081161  0.50000000 -0.00000000
   0.75000000  0.75000000  0.75000000
   0.75000000  0.75000000  0.25000000
   0.25000000  0.75000000  0.25000000
   0.25000000  0.75000000  0.75000000
   0.50000000  0.28918839  0.00000000
   0.50000000  0.71081161 -0.00000000
   0.78918839 -0.00000000  0.50000000
   0.21081161 -0.00000000  0.50000000
