TERTIARY                                
           1
     0.000000    6.130848    0.000000
     5.715939    0.000000    0.000000
     0.000000   -1.751216   -8.074832
   Co   Ce   Cu
     2     2    14
Direct configuration=   102
   0.67460990  0.22065444  0.66147025
   0.32539010  0.72065444  0.33852975
   0.61260170  0.24939219  0.39592455
   0.38739830  0.74939219  0.60407545
   0.12200483  0.09202031  0.33978353
   0.87799517  0.59202031  0.66021647
   0.96999886  0.93051121  0.81986296
   0.03000114  0.43051121  0.18013704
   0.01949229  0.33723008  0.88972702
  -0.01949229  0.83723008  0.11027298
   0.70145641  0.58217562  0.92688080
   0.29854359  0.08217562  0.07311920
   0.71576079  0.14369043  0.00469142
   0.28423921  0.64369043 -0.00469142
   0.07421436  0.21481544  0.60616911
  -0.07421436  0.71481544  0.39383089
   0.39058819  0.30587028  0.82449172
   0.60941181  0.80587028  0.17550828
