TERTIARY                                
           1
     9.771406    0.000000    0.000000
     0.000000    9.771406    0.000000
     0.000000    0.000000    9.771406
   Co   Cu   Ce
     6     8    26
Direct configuration=    11
   0.25000000  0.00000000  0.50000000
   0.75000000  0.00000000  0.50000000
   0.50000000  0.25000000 -0.00000000
   0.50000000  0.75000000 -0.00000000
  -0.00000000  0.50000000  0.25000000
  -0.00000000  0.50000000  0.75000000
   0.25000000  0.25000000  0.25000000
   0.75000000  0.75000000  0.75000000
   0.75000000  0.75000000  0.25000000
   0.75000000  0.25000000  0.75000000
   0.25000000  0.25000000  0.75000000
   0.25000000  0.75000000  0.25000000
   0.25000000  0.75000000  0.75000000
   0.75000000  0.25000000  0.25000000
  -0.00000000  0.00000000 -0.00000000
   0.50000000  0.50000000  0.50000000
  -0.00000000  0.13658765  0.32474086
  -0.00000000  0.86341235  0.67525914
  -0.00000000  0.86341235  0.32474086
  -0.00000000  0.13658765  0.67525914
   0.32474086  0.00000000  0.13658765
   0.63658765  0.50000000  0.17525914
   0.67525914  0.00000000  0.86341235
   0.36341235  0.50000000  0.82474086
   0.32474086  0.00000000  0.86341235
   0.36341235  0.50000000  0.17525914
   0.67525914  0.00000000  0.13658765
   0.63658765  0.50000000  0.82474086
   0.13658765  0.32474086 -0.00000000
   0.50000000  0.82474086  0.36341235
   0.86341235  0.67525914 -0.00000000
   0.50000000  0.17525914  0.63658765
   0.13658765  0.67525914 -0.00000000
   0.50000000  0.17525914  0.36341235
   0.86341235  0.32474086 -0.00000000
   0.50000000  0.82474086  0.63658765
   0.17525914  0.63658765  0.50000000
   0.82474086  0.36341235  0.50000000
   0.17525914  0.36341235  0.50000000
   0.82474086  0.63658765  0.50000000
