TERTIARY                                
           1
     5.236344    0.000000    0.000000
     0.000000    5.474949    0.000000
     0.000000    0.000000    7.309272
   Ce   Cu   Co
     4     4     4
Direct configuration=     4
   0.50000000  0.75000000  0.35803935
   0.50000000  0.25000000  0.64196065
  -0.00000000  0.25000000  0.85803935
   0.00000000  0.75000000  0.14196065
   0.25000000  0.25000000  0.25000000
   0.75000000  0.25000000  0.25000000
   0.75000000  0.75000000  0.75000000
   0.25000000  0.75000000  0.75000000
   0.00000000  0.00000000  0.50000000
   0.50000000 -0.00000000 -0.00000000
   0.50000000  0.50000000 -0.00000000
   0.00000000  0.50000000  0.50000000
