TERTIARY                                
           1
     4.390325    0.000000    0.000000
     0.000000    4.390325    0.000000
     0.000000    0.000000   10.182473
   Ce   Co   Cu
     2     4     4
Direct configuration=     4
  -0.00000000  0.00000000 -0.00000000
   0.50000000  0.50000000  0.50000000
   0.50000000  0.50000000  0.10693265
   0.00000000 -0.00000000  0.39306735
  -0.00000000  0.00000000  0.60693265
   0.50000000  0.50000000  0.89306735
   0.00000000  0.50000000  0.25000000
   0.50000000 -0.00000000  0.25000000
   0.50000000 -0.00000000  0.75000000
  -0.00000000  0.50000000  0.75000000
