TERTIARY                                
           1
     5.487163    0.000000    0.000000
     0.000000    9.079528    0.000000
     0.000000    0.000000   19.545700
   Ce   Co   Cu
    24    12    40
Direct configuration=   115
   0.16404720  0.63837132 -0.03770770
   0.41266073 -0.08869807  0.95202117
   0.82044743  0.47431691  0.89680758
   0.43885374  0.67409853  0.84903017
   0.87278083  0.22414120  0.78665929
   0.07210346  0.49242540  0.78247381
   0.57210346 -0.00757460  0.71752619
   0.37278083  0.72414120  0.71334071
   0.93885374  0.17409853  0.65096983
   0.32044743 -0.02568309  0.60319242
   0.91266073  0.41130193  0.54797883
   0.66404720  0.13837132  0.53770770
   0.16404720  0.86162868  0.46229230
   0.41266073  0.58869807  0.45202117
   0.82044743  0.02568309  0.39680758
   0.43885374  0.82590147  0.34903017
   0.87278083  0.27585880  0.28665929
   0.07210346  0.00757460  0.28247381
   0.57210346  0.50757460  0.21752619
   0.37278083  0.77585880  0.21334071
   0.93885374  0.32590147  0.15096983
   0.32044743  0.52568309  0.10319242
   0.91266073  0.08869807  0.04797883
   0.66404720  0.36162868  0.03770770
   0.40827429  0.42525843  0.93409187
   0.01570083  0.01194578  0.93548964
   0.09779852  0.01422958  0.73984144
   0.59779852  0.51422958  0.76015856
   0.51570083  0.51194578  0.56451036
   0.90827429  0.92525843  0.56590813
   0.40827429  0.07474157  0.43409187
   0.01570083  0.48805422  0.43548964
   0.09779852  0.48577042  0.23984144
   0.59779852  0.98577042  0.26015856
   0.51570083 -0.01194578  0.06451036
   0.90827429  0.57474157  0.06590813
   0.68627171  0.18059883  0.91455486
   0.61118268  0.64114940 -0.01191441
   0.85931781  0.83201550  0.01505159
  -0.14924331  0.77713859  0.89974543
   0.35673028  0.09256274  0.83776361
   0.10629969  0.25347811  0.90173829
   0.43045873  0.33441531  0.82907146
   0.73488894 -0.02604740  0.84165846
   0.14627659  0.87815814  0.83350653
   0.34812485  0.24624320  0.72138698
   0.84812485  0.74624320  0.77861302
   0.64627659  0.37815814  0.66649347
   0.23488894  0.47395260  0.65834154
  -0.06954127 -0.16558469  0.67092854
   0.60629969  0.75347811  0.59826171
   0.85673028  0.59256274  0.66223639
   0.35075669  0.27713859  0.60025457
   0.35931781  0.33201550  0.48494841
   0.11118268  0.14114940  0.51191441
   0.18627171  0.68059883  0.58544514
   0.68627171  0.31940117  0.41455486
   0.61118268 -0.14114940  0.48808559
   0.85931781  0.66798450  0.51505159
  -0.14924331  0.72286141  0.39974543
   0.35673028  0.40743726  0.33776361
   0.10629969  0.24652189  0.40173829
   0.43045873  0.16558469  0.32907146
   0.73488894  0.52604740  0.34165846
   0.14627659  0.62184186  0.33350653
   0.34812485  0.25375680  0.22138698
   0.84812485  0.75375680  0.27861302
   0.64627659  0.12184186  0.16649347
   0.23488894  0.02604740  0.15834154
  -0.06954127  0.66558469  0.17092854
   0.60629969  0.74652189  0.09826171
   0.85673028  0.90743726  0.16223639
   0.35075669  0.22286141  0.10025457
   0.35931781  0.16798450 -0.01505159
   0.11118268  0.35885060  0.01191441
   0.18627171  0.81940117  0.08544514
