TERTIARY                                
           1
     0.000000    5.786523    0.000000
     5.314014    0.000000    0.000000
     0.000000   -0.085072   -6.357812
   Cu   Ce   Co
     4     4     8
Direct configuration=    95
   0.33970839  0.85191888  0.50866085
   0.83970839  0.64808112  0.50866085
   0.16029161  0.35191888  0.49133915
   0.66029161  0.14808112  0.49133915
   0.25901508  0.12054777  0.89414133
   0.75901508  0.37945223  0.89414133
   0.24098492  0.62054777  0.10585867
   0.74098492  0.87945223  0.10585867
   0.12640293  0.63816795  0.78249572
   0.62640293  0.86183205  0.78249572
   0.48440009  0.48177235  0.68176900
   0.98440009  0.01822765  0.68176900
   0.01559991  0.98177235  0.31823100
   0.51559991  0.51822765  0.31823100
   0.37359707  0.13816795  0.21750428
   0.87359707  0.36183205  0.21750428
