TERTIARY                                
           1
     4.187187    0.000000    0.000000
     0.000000    6.637190    0.000000
     0.000000    0.000000   13.882346
   Ce   Co   Cu
     6     8     8
Direct configuration=    11
   0.50000000  0.50000000  0.34927420
  -0.00000000  0.00000000  0.15072580
   0.00000000  0.50000000  0.00000000
   0.00000000  0.00000000  0.84927420
   0.50000000  0.50000000  0.65072580
   0.50000000  0.00000000  0.50000000
   0.50000000  0.68990752  0.16555790
  -0.00000000  0.81009248  0.33444210
   0.50000000  0.31009248  0.16555790
  -0.00000000  0.18990752  0.33444210
  -0.00000000  0.18990752  0.66555790
   0.50000000  0.31009248  0.83444210
  -0.00000000  0.81009248  0.66555790
   0.50000000  0.68990752  0.83444210
   0.50000000  0.00000000  0.29091018
   0.50000000  0.81773795  0.00000000
   0.50000000  0.18226205  0.00000000
  -0.00000000  0.50000000  0.20908982
  -0.00000000  0.50000000  0.79091018
   0.00000000  0.31773795  0.50000000
   0.00000000  0.68226205  0.50000000
   0.50000000  0.00000000  0.70908982
