TERTIARY                                
           1
     8.665423  -15.008953    0.000000
     8.665423   15.008953    0.000000
     0.000000    0.000000   19.090091
   Cu   Co   Ce
    54    30   126
Direct configuration=    64
   0.46989407  0.32048756  0.41220947
   0.83421467 -0.00508287  0.74883336
   0.81011681  0.00969026  0.42388138
   0.19957345  0.18988319  0.42388138
   0.85059349  0.53010593  0.41220947
   0.16070246  0.16578533  0.74883336
   0.00508287  0.83929754  0.74883336
  -0.00969026  0.80042655  0.42388138
   0.67951244  0.14940651  0.41220947
   0.20264919 -0.00155918  0.58949328
   0.18455565 -0.00311232  0.24959129
   0.53345807  0.68539624  0.58492735
   0.81233203  0.81544435  0.24959129
   0.15193817  0.46654193  0.58492735
   0.79579164  0.79735081  0.58949328
   0.31460376  0.84806183  0.58492735
   0.00155918  0.20420836  0.58949328
   0.00311232  0.18766797  0.24959129
   0.13656074  0.65382089  0.74554280
   0.50088134  0.32825046  0.08216669
   0.47678348  0.34302360  0.75721472
   0.86624012  0.52321652  0.75721472
   0.51726016  0.86343926  0.74554280
   0.82736912  0.49911866  0.08216669
   0.67174954  0.17263088  0.08216669
   0.65697640  0.13375988  0.75721472
   0.34617911  0.48273984  0.74554280
   0.86931585  0.33177416  0.92282661
   0.85122231  0.33022101  0.58292462
   0.20012474  0.01872958  0.91826069
   0.47899870  0.14877769  0.58292462
   0.81860484  0.79987526  0.91826069
   0.46245831  0.13068415  0.92282661
  -0.01872958  0.18139516  0.91826069
   0.66822584  0.53754169  0.92282661
   0.66977899  0.52100130  0.58292462
   0.80322740 -0.01284577  0.07887614
   0.16754801  0.66158380  0.41550003
   0.14345015  0.67635693  0.09054805
   0.53290678  0.85654985  0.09054805
   0.18392682  0.19677260  0.07887614
   0.49403579  0.83245199  0.41550003
   0.33841620  0.50596421  0.41550003
   0.32364307  0.46709322  0.09054805
   0.01284577  0.81607318  0.07887614
   0.53598252  0.66510749  0.25615994
   0.51788898  0.66355434  0.91625796
   0.86679140  0.35206291  0.25159402
   0.14566537  0.48211102  0.91625796
   0.48527151  0.13320860  0.25159402
   0.12912497  0.46401748  0.25615994
   0.64793709  0.51472849  0.25159402
   0.33489251  0.87087503  0.25615994
   0.33644566  0.85433463  0.91625796
   0.73186931  0.04381970  0.58630162
   0.31195039  0.26813069  0.58630162
   0.95618030  0.68804961  0.58630162
   0.69691849  0.73888159  0.43968467
   0.26111841  0.95803690  0.43968467
   0.04196310  0.30308151  0.43968467
   0.00000000 -0.00000000  0.16633335
   0.00000000 -0.00000000  0.80815413
   0.00000000 -0.00000000  0.30838059
   0.00000000 -0.00000000  0.67864030
   0.39853597  0.37715303  0.91963495
  -0.02138294  0.60146403  0.91963495
   0.62284697  0.02138294  0.91963495
   0.36358516  0.07221493  0.77301801
   0.92778507  0.29137023  0.77301801
   0.70862977  0.63641484  0.77301801
   0.66666667  0.33333333  0.49966668
   0.66666667  0.33333333  0.14148747
   0.66666667  0.33333333  0.64171393
   0.66666667  0.33333333  0.01197364
   0.06520264  0.71048636  0.25296828
   0.64528372 -0.06520264  0.25296828
   0.28951364  0.35471628  0.25296828
   0.03025183  0.40554826  0.10635134
   0.59445174  0.62470356  0.10635134
   0.37529644  0.96974817  0.10635134
   0.33333333  0.66666667  0.83300002
   0.33333333  0.66666667  0.47482080
   0.33333333  0.66666667  0.97504726
   0.33333333  0.66666667  0.34530697
   0.63102893 -0.01469813  0.48625849
   0.35427294  0.36897107  0.48625849
   0.01469813  0.64572706  0.48625849
   0.64334668  0.64713192  0.67032237
   0.35286808 -0.00378524  0.67032237
   0.00378524  0.35665332  0.67032237
   0.81044570  0.13885663  0.67575533
   0.78610087  0.11256971  0.31053485
   0.13144084  0.79194899  0.66222739
   0.66050815  0.86855916  0.66222739
   0.32841093  0.18955430  0.67575533
   0.32646884  0.21389913  0.31053485
   0.88743029  0.67353116  0.31053485
   0.20805101  0.33949185  0.66222739
   0.86114337  0.67158907  0.67575533
   0.55575111  0.56344666  0.49024281
   0.14601528  0.83367224  0.51925914
   0.85859994  0.18563627  0.49612859
   0.68765695  0.85398472  0.51925914
   0.32703633  0.14140006  0.49612859
   0.00769555  0.44424889  0.49024281
   0.81436373  0.67296367  0.49612859
   0.43655334 -0.00769555  0.49024281
   0.16632776  0.31234305  0.51925914
   0.88401016  0.00343342  0.58510748
   0.86075363  0.00532127  0.23838115
   0.21075265  0.65396330  0.56612150
   0.44321064  0.78924735  0.56612150
   0.11942326  0.11598984  0.58510748
   0.14456764  0.13924637  0.23838115
  -0.00532127  0.85543236  0.23838115
   0.34603670  0.55678936  0.56612150
  -0.00343342  0.88057674  0.58510748
   0.16048663  0.00322507  0.74342060
   0.11958385 -0.00458271  0.40115966
   0.79049977  0.33927872  0.40989110
   0.87583344  0.88041615  0.40115966
   0.54877895  0.20950023  0.40989110
   0.84273844  0.83951337  0.74342060
   0.66072128  0.45122105  0.40989110
  -0.00322507  0.15726156  0.74342060
   0.00458271  0.12416656  0.40115966
   0.29769560  0.31863520  0.81959182
   0.02093961  0.70230440  0.81959182
   0.68136480  0.97906039  0.81959182
   0.31001335 -0.01953474  0.00365570
   0.01953474  0.32954809  0.00365570
   0.67045191  0.68998665  0.00365570
   0.47711236  0.47218996  0.00908866
   0.45276754  0.44590304  0.64386818
   0.79810750  0.12528232 -0.00443928
   0.32717482  0.20189250 -0.00443928
  -0.00492240  0.52288764  0.00908866
  -0.00686450  0.54723246  0.64386818
   0.55409696  0.00686450  0.64386818
   0.87471768  0.67282518 -0.00443928
   0.52781004  0.00492240  0.00908866
   0.22241778  0.89678000  0.82357615
   0.81268195  0.16700557  0.85259247
   0.52526660  0.51896960  0.82946192
   0.35432362  0.18731805  0.85259247
  -0.00629700  0.47473340  0.82946192
   0.67436222  0.77758222  0.82357615
   0.48103040  0.00629700  0.82946192
   0.10322000  0.32563778  0.82357615
   0.83299443  0.64567638  0.85259247
   0.55067683  0.33676675  0.91844081
   0.52742030  0.33865460  0.57171448
   0.87741932 -0.01270337  0.89945483
   0.10987731  0.12258068  0.89945483
   0.78608992  0.44932317  0.91844081
   0.81123430  0.47257970  0.57171448
   0.66134540  0.18876570  0.57171448
   0.01270337  0.89012269  0.89945483
   0.66323325  0.21391008  0.91844081
   0.82715330  0.33655841  0.07675394
   0.78625052  0.32875062  0.73449300
   0.45716644  0.67261206  0.74322443
   0.54250011  0.21374948  0.73449300
   0.21544562  0.54283356  0.74322443
   0.50940511  0.17284670  0.07675394
   0.32738794  0.78455438  0.74322443
   0.66344159  0.49059489  0.07675394
   0.67124938  0.45749989  0.73449300
   0.96436226  0.65196854  0.15292515
   0.68760627  0.03563774  0.15292515
   0.34803146  0.31239373  0.15292515
  -0.02331998  0.31379859  0.33698904
   0.68620141  0.66288143  0.33698904
   0.33711857  0.02331998  0.33698904
   0.14377903  0.80552330  0.34242200
   0.11943421  0.77923638 -0.02279848
   0.46477417  0.45861565  0.32889405
  -0.00615852  0.53522583  0.32889405
   0.66174427  0.85622097  0.34242200
   0.65980217  0.88056579 -0.02279848
   0.22076362  0.34019783 -0.02279848
   0.54138435  0.00615852  0.32889405
   0.19447670  0.33825573  0.34242200
   0.88908444  0.23011333  0.15690948
   0.47934862  0.50033890  0.18592581
   0.19193327  0.85230293  0.16279526
   0.02099029  0.52065138  0.18592581
   0.66036966  0.80806673  0.16279526
   0.34102889  0.11091556  0.15690948
   0.14769707  0.33963034  0.16279526
   0.76988667  0.65897111  0.15690948
   0.49966110  0.97900971  0.18592581
   0.21734349  0.67010008  0.25177414
   0.19408697  0.67198794  0.90504782
   0.54408599  0.32062996  0.23278816
   0.77654398  0.45591401  0.23278816
   0.45275659  0.78265651  0.25177414
   0.47790097  0.80591303  0.90504782
   0.32801206  0.52209903  0.90504782
   0.67937004  0.22345602  0.23278816
   0.32989992  0.54724341  0.25177414
   0.49381996  0.66989174  0.41008727
   0.45291718  0.66208396  0.06782633
   0.12383310  0.00594539  0.07655776
   0.20916677  0.54708282  0.06782633
   0.88211229  0.87616690  0.07655776
   0.17607178  0.50618004  0.41008727
  -0.00594539  0.11788771  0.07655776
   0.33010826  0.82392822  0.41008727
   0.33791604  0.79083323  0.06782633
