TERTIARY                                
           1
     1.772687   -3.070384    0.000000
     1.772687    3.070384    0.000000
     0.000000    0.000000   20.798814
   Co   Cu   Ce
     3     3     6
Direct configuration=     9
   0.00000000  0.00000000 -0.00422703
   0.66666667  0.33333333  0.32910630
   0.33333333  0.66666667  0.66243964
   0.66666667  0.33333333  0.18652286
   0.33333333  0.66666667  0.51985619
   0.00000000 -0.00000000  0.85318953
   0.66666667  0.33333333  0.06146845
  -0.00000000 -0.00000000  0.26390239
   0.33333333  0.66666667  0.39480178
   0.66666667  0.33333333  0.59723572
  -0.00000000 -0.00000000  0.72813511
   0.33333333  0.66666667  0.93056906
