TERTIARY                                
           1
     8.596591    0.000000    0.000000
     0.000000    8.596591    0.000000
     0.000000    0.000000    5.063511
   Cu   Ce   Co
     2     4    18
Direct configuration=    16
   0.50000000  0.50000000  0.00000000
   0.00000000  0.00000000  0.00000000
   0.64262566  0.14262566  0.00000000
   0.35737434  0.85737434  0.00000000
   0.14262566  0.35737434  0.00000000
   0.85737434  0.64262566  0.00000000
   0.81650985  0.31650985  0.72769978
   0.18349015  0.68349015  0.72769978
   0.31650985  0.18349015  0.72769978
   0.68349015  0.81650985  0.72769978
   0.18349015  0.68349015  0.27230022
   0.81650985  0.31650985  0.27230022
   0.68349015  0.81650985  0.27230022
   0.31650985  0.18349015  0.27230022
   0.69678980  0.54537993  0.50000000
   0.30321020  0.45462007  0.50000000
   0.19678980  0.95462007  0.50000000
   0.80321020  0.04537993  0.50000000
   0.45462007  0.69678980  0.50000000
   0.54537993  0.30321020  0.50000000
   0.04537993  0.19678980  0.50000000
   0.95462007  0.80321020  0.50000000
   0.50000000  0.00000000  0.50000000
   0.00000000  0.50000000  0.50000000
