TERTIARY                                
           1
     0.000000    7.376330    0.000000
     4.319415    0.000000    0.000000
     0.000000   -2.337674   -7.231927
   Co   Ce   Cu
     1     2     4
Direct configuration=    20
   0.50000000  0.00000000  0.50000000
  -0.00000000  0.00000000  0.00000000
   0.50000000  0.50000000  0.00000000
   0.41386322  0.50000000  0.33681382
   0.63254405 -0.00000000  0.25392199
   0.58613678  0.50000000  0.66318618
   0.36745595 -0.00000000  0.74607801
