TERTIARY                                
           1
     3.961260    0.000000    0.000000
     0.000000    3.961260    0.000000
     0.000000    0.000000    8.738917
   Co   Ce   Cu
     2     3     1
Direct configuration=    11
   0.50000000 -0.00000000  0.79057778
  -0.00000000  0.50000000  0.20942222
   0.50000000  0.00000000  0.33509570
  -0.00000000  0.50000000  0.66490430
   0.00000000  0.00000000  0.00000000
   0.50000000  0.50000000  0.00000000
