TERTIARY                                
           1
     0.000000    9.138447    0.000000
     5.376276    0.000000    0.000000
     0.000000   -0.101965   -8.577616
   Cu   Ce   Co
     2     6    16
Direct configuration=    23
   0.33395678 -0.00000000  0.52036216
   0.83395678  0.50000000  0.52036216
   0.67021914 -0.00000000  0.51933337
   0.66404598 -0.00000000  0.91534438
   0.33332055 -0.00000000  0.14771289
   0.17021914  0.50000000  0.51933337
   0.16404598  0.50000000  0.91534438
   0.83332055  0.50000000  0.14771289
  -0.00379720 -0.00000000  0.48382565
  -0.00098235 -0.00000000  0.98704354
   0.57954661  0.26296642  0.23090289
   0.83891922 -0.00000000  0.23144809
   0.57954661  0.73703358  0.23090289
   0.42306530  0.72754487  0.74349625
   0.15909506 -0.00000000  0.74613262
   0.42306530  0.27245513  0.74349625
   0.49620280  0.50000000  0.48382565
   0.49901765  0.50000000  0.98704354
   0.07954661  0.76296642  0.23090289
   0.33891922  0.50000000  0.23144809
   0.07954661  0.23703358  0.23090289
   0.92306530  0.22754487  0.74349625
   0.65909506  0.50000000  0.74613262
   0.92306530  0.77245513  0.74349625
