TERTIARY                                
           1
     0.000000   10.293018    0.000000
     4.468543    0.000000    0.000000
     0.000000   -4.613665   -5.150010
   Ce   Co   Cu
     4     4     4
Direct configuration=    13
   0.53911688 -0.00000000  0.28910698
   0.46088312 -0.00000000  0.71089302
   0.03911688  0.50000000  0.28910698
   0.96088312  0.50000000  0.71089302
   0.85624767 -0.00000000  0.89651197
   0.14375233 -0.00000000  0.10348803
   0.35624767  0.50000000  0.89651197
   0.64375233  0.50000000  0.10348803
   0.67160037  0.50000000  0.73160193
   0.32839963  0.50000000  0.26839807
   0.17160037  0.00000000  0.73160193
   0.82839963  0.00000000  0.26839807
