TERTIARY                                
           1
     4.130363    0.000000    0.000000
     0.000000    4.130363    0.000000
     0.000000    0.000000   16.032232
   Ce   Cu   Co
     4     4     4
Direct configuration=    27
   0.50000000  0.50000000  0.18155356
  -0.00000000 -0.00000000  0.31844644
   0.00000000 -0.00000000  0.68155356
   0.50000000  0.50000000  0.81844644
   0.50000000  0.00000000  0.00000000
   0.00000000  0.50000000  0.00000000
  -0.00000000  0.50000000  0.50000000
   0.50000000 -0.00000000  0.50000000
   0.50000000  0.50000000  0.33118666
   0.00000000 -0.00000000  0.16881334
   0.00000000 -0.00000000  0.83118666
   0.50000000  0.50000000  0.66881334
