TERTIARY                                
           1
     2.158586   -3.738781    0.000000
     2.158586    3.738781    0.000000
     0.000000    0.000000  201.298054
   Cu   Co   Ce
   141    15    57
Direct configuration=    12
   0.33333333  0.66666667  0.98787071
  -0.00000000 -0.00000000  0.97999442
   0.33333333  0.66666667  0.96181985
   0.66666667  0.33333333  0.94469920
   0.00000000  0.00000000  0.90707617
   0.00000000  0.00000000  0.92800709
   0.33333333  0.66666667  0.89082408
   0.33333333  0.66666667  0.91309708
   0.33333333  0.66666667  0.90197514
   0.66666667  0.33333333  0.87519874
   0.66666667  0.33333333  0.89754210
   0.66666667  0.33333333  0.88642915
   0.00000000  0.00000000  0.87078435
   0.00000000  0.00000000  0.88212480
   0.00000000  0.00000000  0.85939821
   0.33333333  0.66666667  0.86646742
   0.33333333  0.66666667  0.85505873
   0.33333333  0.66666667  0.84317922
   0.66666667  0.33333333  0.83905315
   0.66666667  0.33333333  0.85081578
   0.00000000  0.00000000  0.82078316
  -0.00000000  0.00000000  0.80712363
   0.00000000 -0.00000000  0.83407078
   0.33333333  0.66666667  0.78870319
   0.33333333  0.66666667  0.80229442
   0.33333333  0.66666667  0.81726163
   0.66666667  0.33333333  0.78377689
   0.66666667  0.33333333  0.77027640
   0.66666667  0.33333333  0.79799506
  -0.00000000 -0.00000000  0.77963881
   0.00000000 -0.00000000  0.76534348
  -0.00000000 -0.00000000  0.75151155
   0.33333333  0.66666667  0.74653000
   0.33333333  0.66666667  0.76107798
   0.33333333  0.66666667  0.73228644
   0.66666667  0.33333333  0.72725981
   0.66666667  0.33333333  0.71300894
   0.66666667  0.33333333  0.74216143
  -0.00000000 -0.00000000  0.72283194
  -0.00000000  0.00000000  0.69357351
   0.00000000  0.00000000  0.70801970
   0.33333333  0.66666667  0.68855849
   0.33333333  0.66666667  0.67421378
   0.33333333  0.66666667  0.70351740
   0.66666667  0.33333333  0.68404559
   0.66666667  0.33333333  0.66899778
  -0.00000000  0.00000000  0.66412056
  -0.00000000  0.00000000  0.32120405
   0.66666667  0.33333333  0.31332775
  -0.00000000  0.00000000  0.29515318
   0.33333333  0.66666667  0.27803253
   0.66666667  0.33333333  0.24040951
   0.66666667  0.33333333  0.26134042
  -0.00000000 -0.00000000  0.22415741
  -0.00000000  0.00000000  0.24643041
  -0.00000000  0.00000000  0.23530848
   0.33333333  0.66666667  0.20853207
   0.33333333  0.66666667  0.23087544
   0.33333333  0.66666667  0.21976249
   0.66666667  0.33333333  0.20411769
   0.66666667  0.33333333  0.21545813
   0.66666667  0.33333333  0.19273155
   0.00000000  0.00000000  0.19980075
  -0.00000000 -0.00000000  0.18839207
  -0.00000000 -0.00000000  0.17651255
   0.33333333  0.66666667  0.17238648
   0.33333333  0.66666667  0.18414911
   0.66666667  0.33333333  0.15411650
   0.66666667  0.33333333  0.14045697
   0.66666667  0.33333333  0.16740411
   0.00000000  0.00000000  0.12203652
  -0.00000000 -0.00000000  0.13562775
   0.00000000 -0.00000000  0.15059496
   0.33333333  0.66666667  0.11711022
   0.33333333  0.66666667  0.10360974
   0.33333333  0.66666667  0.13132839
   0.66666667  0.33333333  0.11297214
   0.66666667  0.33333333  0.09867681
   0.66666667  0.33333333  0.08484488
   0.00000000  0.00000000  0.07986333
  -0.00000000  0.00000000  0.09441132
  -0.00000000  0.00000000  0.06561978
   0.33333333  0.66666667  0.06059314
   0.33333333  0.66666667  0.04634227
   0.33333333  0.66666667  0.07549476
   0.66666667  0.33333333  0.05616527
   0.66666667  0.33333333  0.02690684
   0.66666667  0.33333333  0.04135304
  -0.00000000 -0.00000000  0.02189182
  -0.00000000  0.00000000  0.00754711
  -0.00000000 -0.00000000  0.03685074
   0.33333333  0.66666667  0.01737892
   0.33333333  0.66666667  0.00233112
   0.66666667  0.33333333 -0.00254610
   0.66666667  0.33333333  0.65453738
   0.33333333  0.66666667  0.64666109
   0.66666667  0.33333333  0.62848652
   0.00000000  0.00000000  0.61136586
   0.33333333  0.66666667  0.57374284
   0.33333333  0.66666667  0.59467376
   0.66666667  0.33333333  0.55749075
   0.66666667  0.33333333  0.57976375
   0.66666667  0.33333333  0.56864181
   0.00000000  0.00000000  0.54186540
  -0.00000000 -0.00000000  0.56420877
  -0.00000000 -0.00000000  0.55309582
   0.33333333  0.66666667  0.53745102
   0.33333333  0.66666667  0.54879146
   0.33333333  0.66666667  0.52606488
   0.66666667  0.33333333  0.53313408
   0.66666667  0.33333333  0.52172540
   0.66666667  0.33333333  0.50984588
   0.00000000  0.00000000  0.50571982
  -0.00000000  0.00000000  0.51748244
   0.33333333  0.66666667  0.48744983
   0.33333333  0.66666667  0.47379030
   0.33333333  0.66666667  0.50073745
   0.66666667  0.33333333  0.45536985
   0.66666667  0.33333333  0.46896109
   0.66666667  0.33333333  0.48392829
   0.00000000  0.00000000  0.45044355
  -0.00000000 -0.00000000  0.43694307
  -0.00000000 -0.00000000  0.46466173
   0.33333333  0.66666667  0.44630547
   0.33333333  0.66666667  0.43201015
   0.33333333  0.66666667  0.41817821
   0.66666667  0.33333333  0.41319666
   0.66666667  0.33333333  0.42774465
   0.66666667  0.33333333  0.39895311
  -0.00000000 -0.00000000  0.39392647
   0.00000000  0.00000000  0.37967561
   0.00000000  0.00000000  0.40882809
   0.33333333  0.66666667  0.38949861
   0.33333333  0.66666667  0.36024017
   0.33333333  0.66666667  0.37468637
   0.66666667  0.33333333  0.35522515
   0.66666667  0.33333333  0.34088044
   0.66666667  0.33333333  0.37018407
   0.00000000 -0.00000000  0.35071226
   0.00000000  0.00000000  0.33566445
   0.33333333  0.66666667  0.33078723
   0.66666667  0.33333333  0.97125044
   0.00000000  0.00000000  0.95382500
   0.33333333  0.66666667  0.93660169
   0.66666667  0.33333333  0.92076071
   0.66666667  0.33333333  0.82474406
   0.33333333  0.66666667  0.30458378
   0.66666667  0.33333333  0.28715833
   0.00000000  0.00000000  0.26993502
   0.33333333  0.66666667  0.25409405
   0.33333333  0.66666667  0.15807740
   0.00000000 -0.00000000  0.63791711
   0.33333333  0.66666667  0.62049166
   0.66666667  0.33333333  0.60326835
   0.00000000  0.00000000  0.58742738
   0.00000000  0.00000000  0.49141073
   0.33333333  0.66666667  0.66027801
   0.33333333  0.66666667  0.97483455
   0.66666667  0.33333333  0.95807866
   0.00000000 -0.00000000  0.94102717
   0.33333333  0.66666667  0.92564446
   0.66666667  0.33333333  0.91021092
   0.00000000  0.00000000  0.89453996
   0.33333333  0.66666667  0.87838419
   0.66666667  0.33333333  0.86279946
   0.00000000  0.00000000  0.84666574
   0.33333333  0.66666667  0.83041974
  -0.00000000 -0.00000000  0.79346725
   0.66666667  0.33333333  0.81207806
   0.33333333  0.66666667  0.77523762
   0.66666667  0.33333333  0.75655764
   0.00000000 -0.00000000  0.73744675
   0.33333333  0.66666667  0.71806718
   0.66666667  0.33333333  0.69862536
  -0.00000000 -0.00000000  0.67899364
   0.00000000  0.00000000  0.99361134
   0.00000000  0.00000000  0.30816789
   0.33333333  0.66666667  0.29141199
   0.66666667  0.33333333  0.27436051
  -0.00000000 -0.00000000  0.25897779
   0.33333333  0.66666667  0.24354425
   0.66666667  0.33333333  0.22787330
   0.00000000  0.00000000  0.21171753
   0.33333333  0.66666667  0.19613279
   0.66666667  0.33333333  0.17999908
   0.00000000 -0.00000000  0.16375307
   0.66666667  0.33333333  0.12680058
   0.33333333  0.66666667  0.14541139
   0.00000000  0.00000000  0.10857096
   0.33333333  0.66666667  0.08989098
   0.66666667  0.33333333  0.07078008
  -0.00000000 -0.00000000  0.05140051
   0.33333333  0.66666667  0.03195869
   0.66666667  0.33333333  0.01232697
   0.66666667  0.33333333  0.32694467
   0.66666667  0.33333333  0.64150122
   0.00000000  0.00000000  0.62474533
   0.33333333  0.66666667  0.60769384
   0.66666667  0.33333333  0.59231112
  -0.00000000 -0.00000000  0.57687758
   0.33333333  0.66666667  0.56120663
   0.66666667  0.33333333  0.54505086
   0.00000000  0.00000000  0.52946613
   0.33333333  0.66666667  0.51333241
   0.66666667  0.33333333  0.49708641
   0.33333333  0.66666667  0.46013392
   0.00000000  0.00000000  0.47874472
   0.66666667  0.33333333  0.44190429
   0.00000000  0.00000000  0.42322431
   0.33333333  0.66666667  0.40411342
   0.66666667  0.33333333  0.38473385
   0.00000000  0.00000000  0.36529202
   0.33333333  0.66666667  0.34566030
