TERTIARY                                
           1
     4.315778    0.000000    0.000000
     0.000000    4.315778    0.000000
     0.000000    0.000000   13.217409
   Ce   Cu   Co
     2     2     8
Direct configuration=     5
   0.50000000 -0.00000000  0.25000000
  -0.00000000  0.50000000  0.75000000
   0.00000000 -0.00000000 -0.00000000
   0.50000000  0.50000000  0.50000000
  -0.00000000  0.50000000  0.16285126
   0.50000000  0.50000000  0.09146308
   0.00000000  0.50000000  0.33714874
   0.00000000 -0.00000000  0.40853692
   0.50000000 -0.00000000  0.66285126
  -0.00000000  0.00000000  0.59146308
   0.50000000 -0.00000000  0.83714874
   0.50000000  0.50000000  0.90853692
