TERTIARY                                
           1
     2.942006   -5.095704    0.000000
     2.942006    5.095704    0.000000
     0.000000    0.000000    6.881514
   Cu   Ce   Co
     3     3    12
Direct configuration=    53
   0.33333333  0.66666667  0.67867293
   0.33333333  0.66666667  0.32132707
   0.66666667  0.33333333 -0.00000000
   0.00000000  0.00000000  0.19760366
   0.00000000  0.00000000  0.80239634
   0.66666667  0.33333333  0.50000000
   0.20315962  0.93121020  0.50000000
   0.30236149  0.87983817 -0.00000000
   0.06878980  0.27194942  0.50000000
   0.12016183  0.42252332 -0.00000000
   0.41774709  0.34700268  0.23903135
   0.41774709  0.34700268  0.76096865
   0.57747668  0.69763851 -0.00000000
   0.72805058  0.79684038  0.50000000
   0.65299732  0.07074442  0.23903135
   0.65299732  0.07074442  0.76096865
   0.92925558  0.58225291  0.23903135
   0.92925558  0.58225291  0.76096865
