TERTIARY                                
           1
     5.959627    0.000000    0.000000
     0.000000    8.069372    0.000000
     0.000000    0.000000    3.105511
   Co   Ce   Cu
     4     2     8
Direct configuration=     8
   0.25000000  0.75000000  0.50000000
   0.25000000  0.25000000  0.50000000
   0.75000000  0.25000000  0.50000000
   0.75000000  0.75000000  0.50000000
   0.00000000  0.00000000 -0.00000000
   0.50000000  0.50000000 -0.00000000
   0.50000000  0.83229732  0.00000000
   0.32392995  0.00000000  0.50000000
   0.67607005  0.00000000  0.50000000
   0.50000000  0.16770268 -0.00000000
   0.00000000  0.33229732  0.00000000
   0.82392995  0.50000000  0.50000000
   0.17607005  0.50000000  0.50000000
   0.00000000  0.66770268 -0.00000000
