TERTIARY                                
           1
     0.000000    5.173001    0.000000
     3.582926    0.000000    0.000000
     0.000000   -2.537939   -6.914684
   Cu   Co   Ce
     4     2     2
Direct configuration=    33
   0.39803068  0.25000000  0.07473421
   0.60196932  0.75000000  0.92526579
   0.61044458  0.25000000  0.45843504
   0.38955542  0.75000000  0.54156496
   0.30459251  0.25000000  0.73009953
   0.69540749  0.75000000  0.26990047
   0.99564341  0.25000000  0.25316147
   0.00435659  0.75000000  0.74683853
